<?xml version="1.0"?>
<VTKFile type="UnstructuredGrid"  version="0.1"  >
<UnstructuredGrid>
<Piece  NumberOfPoints="1505" NumberOfCells="5017">
<Points>
<DataArray  type="Float64"  NumberOfComponents="3"  format="ascii">1 0 0  -1 0 0  0 1 0  0 -1 0  0 0 1  0 0 -1  0.9987954562051859 0.04906767432714112 0  0.9951847266722343 0.09801714032917982 0  0.9891765099648483 0.1467304744549082 0  0.9807852804033356 0.1950903220155996 0  0.9700312531947027 0.24298017990263 0  0.9569403357324345 0.2902846772537184 0  0.9415440651833348 0.3368898533913423 0  0.9238795325116899 0.3826834323641164 0  0.9039892931239354 0.4275550934292418 0  0.8819212643489727 0.4713967368248421 0  0.8577286100010124 0.5141027441919865 0  0.8314696123033888 0.5555702330183399 0  0.8032075314816105 0.5956993044911314 0  0.7730104533638363 0.6343932841623059 0  0.7409511253561872 0.6715589548456633 0  0.7071067811878894 0.7071067811852056 0  0.6715589548483512 0.7409511253537511 0  0.6343932841648996 0.7730104533617078 0  0.5956993044936406 0.8032075314797495 0  0.5555702330207417 0.8314696123017838 0  0.5141027441943092 0.8577286099996203 0  0.4713967368269896 0.8819212643478248 0  0.4275550934311537 0.9039892931230311 0  0.382683432365871 0.9238795325109631 0  0.3368898533928861 0.9415440651827824 0  0.290284677254992 0.9569403357320482 0  0.2429801799036679 0.9700312531944428 0  0.1950903220164424 0.9807852804031679 0  0.1467304744555785 0.9891765099647488 0  0.09801714032963502 0.9951847266721896 0  0.04906767432733829 0.9987954562051763 0  -0.04906767432714112 0.9987954562051859 0  -0.09801714032917982 0.9951847266722343 0  -0.1467304744549082 0.9891765099648483 0  -0.1950903220155996 0.9807852804033356 0  -0.24298017990263 0.9700312531947027 0  -0.2902846772537184 0.9569403357324345 0  -0.3368898533913423 0.9415440651833348 0  -0.3826834323641164 0.9238795325116899 0  -0.4275550934292418 0.9039892931239354 0  -0.4713967368248421 0.8819212643489727 0  -0.5141027441919865 0.8577286100010124 0  -0.5555702330183399 0.8314696123033888 0  -0.5956993044911314 0.8032075314816105 0  -0.6343932841623059 0.7730104533638363 0  -0.6715589548456633 0.7409511253561872 0  -0.7071067811852056 0.7071067811878894 0  -0.7409511253537511 0.6715589548483512 0  -0.7730104533617078 0.6343932841648996 0  -0.8032075314797495 0.5956993044936406 0  -0.8314696123017838 0.5555702330207417 0  -0.8577286099996203 0.5141027441943092 0  -0.8819212643478248 0.4713967368269896 0  -0.9039892931230311 0.4275550934311537 0  -0.9238795325109631 0.382683432365871 0  -0.9415440651827824 0.3368898533928861 0  -0.9569403357320482 0.290284677254992 0  -0.9700312531944428 0.2429801799036679 0  -0.9807852804031679 0.1950903220164424 0  -0.9891765099647488 0.1467304744555785 0  -0.9951847266721896 0.09801714032963502 0  -0.9987954562051763 0.04906767432733829 0  -0.9987954562051859 -0.04906767432714112 0  -0.9951847266722343 -0.09801714032917982 0  -0.9891765099648483 -0.1467304744549082 0  -0.9807852804033356 -0.1950903220155996 0  -0.9700312531947027 -0.24298017990263 0  -0.9569403357324345 -0.2902846772537184 0  -0.9415440651833348 -0.3368898533913423 0  -0.9238795325116899 -0.3826834323641164 0  -0.9039892931239354 -0.4275550934292418 0  -0.8819212643489727 -0.4713967368248421 0  -0.8577286100010124 -0.5141027441919865 0  -0.8314696123033888 -0.5555702330183399 0  -0.8032075314816105 -0.5956993044911314 0  -0.7730104533638363 -0.6343932841623059 0  -0.7409511253561872 -0.6715589548456633 0  -0.7071067811878894 -0.7071067811852056 0  -0.6715589548483512 -0.7409511253537511 0  -0.6343932841648996 -0.7730104533617078 0  -0.5956993044936406 -0.8032075314797495 0  -0.5555702330207417 -0.8314696123017838 0  -0.5141027441943092 -0.8577286099996203 0  -0.4713967368269896 -0.8819212643478248 0  -0.4275550934311537 -0.9039892931230311 0  -0.382683432365871 -0.9238795325109631 0  -0.3368898533928861 -0.9415440651827824 0  -0.290284677254992 -0.9569403357320482 0  -0.2429801799036679 -0.9700312531944428 0  -0.1950903220164424 -0.9807852804031679 0  -0.1467304744555785 -0.9891765099647488 0  -0.09801714032963502 -0.9951847266721896 0  -0.04906767432733829 -0.9987954562051763 0  0.04906767432714112 -0.9987954562051859 0  0.09801714032917982 -0.9951847266722343 0  0.1467304744549082 -0.9891765099648483 0  0.1950903220155996 -0.9807852804033356 0  0.24298017990263 -0.9700312531947027 0  0.2902846772537184 -0.9569403357324345 0  0.3368898533913423 -0.9415440651833348 0  0.3826834323641164 -0.9238795325116899 0  0.4275550934292418 -0.9039892931239354 0  0.4713967368248421 -0.8819212643489727 0  0.5141027441919865 -0.8577286100010124 0  0.5555702330183399 -0.8314696123033888 0  0.5956993044911314 -0.8032075314816105 0  0.6343932841623059 -0.7730104533638363 0  0.6715589548456633 -0.7409511253561872 0  0.7071067811852056 -0.7071067811878894 0  0.7409511253537511 -0.6715589548483512 0  0.7730104533617078 -0.6343932841648996 0  0.8032075314797495 -0.5956993044936406 0  0.8314696123017838 -0.5555702330207417 0  0.8577286099996203 -0.5141027441943092 0  0.8819212643478248 -0.4713967368269896 0  0.9039892931230311 -0.4275550934311537 0  0.9238795325109631 -0.382683432365871 0  0.9415440651827824 -0.3368898533928861 0  0.9569403357320482 -0.290284677254992 0  0.9700312531944428 -0.2429801799036679 0  0.9807852804031679 -0.1950903220164424 0  0.9891765099647488 -0.1467304744555785 0  0.9951847266721896 -0.09801714032963502 0  0.9987954562051763 -0.04906767432733829 0  0.9987954562051859 0 0.04906767432714112  0.9951847266722343 0 0.09801714032917982  0.9891765099648483 0 0.1467304744549082  0.9807852804033356 0 0.1950903220155996  0.9700312531947027 0 0.24298017990263  0.9569403357324345 0 0.2902846772537184  0.9415440651833348 0 0.3368898533913423  0.9238795325116899 0 0.3826834323641164  0.9039892931239354 0 0.4275550934292418  0.8819212643489727 0 0.4713967368248421  0.8577286100010124 0 0.5141027441919865  0.8314696123033888 0 0.5555702330183399  0.8032075314816105 0 0.5956993044911314  0.7730104533638363 0 0.6343932841623059  0.7409511253561872 0 0.6715589548456633  0.7071067811878894 0 0.7071067811852056  0.6715589548483512 0 0.7409511253537511  0.6343932841648996 0 0.7730104533617078  0.5956993044936406 0 0.8032075314797495  0.5555702330207417 0 0.8314696123017838  0.5141027441943092 0 0.8577286099996203  0.4713967368269896 0 0.8819212643478248  0.4275550934311537 0 0.9039892931230311  0.382683432365871 0 0.9238795325109631  0.3368898533928861 0 0.9415440651827824  0.290284677254992 0 0.9569403357320482  0.2429801799036679 0 0.9700312531944428  0.1950903220164424 0 0.9807852804031679  0.1467304744555785 0 0.9891765099647488  0.09801714032963502 0 0.9951847266721896  0.04906767432733829 0 0.9987954562051763  -0.04906767432714112 0 0.9987954562051859  -0.09801714032917982 0 0.9951847266722343  -0.1467304744549082 0 0.9891765099648483  -0.1950903220155996 0 0.9807852804033356  -0.24298017990263 0 0.9700312531947027  -0.2902846772537184 0 0.9569403357324345  -0.3368898533913423 0 0.9415440651833348  -0.3826834323641164 0 0.9238795325116899  -0.4275550934292418 0 0.9039892931239354  -0.4713967368248421 0 0.8819212643489727  -0.5141027441919865 0 0.8577286100010124  -0.5555702330183399 0 0.8314696123033888  -0.5956993044911314 0 0.8032075314816105  -0.6343932841623059 0 0.7730104533638363  -0.6715589548456633 0 0.7409511253561872  -0.7071067811852056 0 0.7071067811878894  -0.7409511253537511 0 0.6715589548483512  -0.7730104533617078 0 0.6343932841648996  -0.8032075314797495 0 0.5956993044936406  -0.8314696123017838 0 0.5555702330207417  -0.8577286099996203 0 0.5141027441943092  -0.8819212643478248 0 0.4713967368269896  -0.9039892931230311 0 0.4275550934311537  -0.9238795325109631 0 0.382683432365871  -0.9415440651827824 0 0.3368898533928861  -0.9569403357320482 0 0.290284677254992  -0.9700312531944428 0 0.2429801799036679  -0.9807852804031679 0 0.1950903220164424  -0.9891765099647488 0 0.1467304744555785  -0.9951847266721896 0 0.09801714032963502  -0.9987954562051763 0 0.04906767432733829  -0.9987954562051859 0 -0.04906767432714112  -0.9951847266722343 0 -0.09801714032917982  -0.9891765099648483 0 -0.1467304744549082  -0.9807852804033356 0 -0.1950903220155996  -0.9700312531947027 0 -0.24298017990263  -0.9569403357324345 0 -0.2902846772537184  -0.9415440651833348 0 -0.3368898533913423  -0.9238795325116899 0 -0.3826834323641164  -0.9039892931239354 0 -0.4275550934292418  -0.8819212643489727 0 -0.4713967368248421  -0.8577286100010124 0 -0.5141027441919865  -0.8314696123033888 0 -0.5555702330183399  -0.8032075314816105 0 -0.5956993044911314  -0.7730104533638363 0 -0.6343932841623059  -0.7409511253561872 0 -0.6715589548456633  -0.7071067811878894 0 -0.7071067811852056  -0.6715589548483512 0 -0.7409511253537511  -0.6343932841648996 0 -0.7730104533617078  -0.5956993044936406 0 -0.8032075314797495  -0.5555702330207417 0 -0.8314696123017838  -0.5141027441943092 0 -0.8577286099996203  -0.4713967368269896 0 -0.8819212643478248  -0.4275550934311537 0 -0.9039892931230311  -0.382683432365871 0 -0.9238795325109631  -0.3368898533928861 0 -0.9415440651827824  -0.290284677254992 0 -0.9569403357320482  -0.2429801799036679 0 -0.9700312531944428  -0.1950903220164424 0 -0.9807852804031679  -0.1467304744555785 0 -0.9891765099647488  -0.09801714032963502 0 -0.9951847266721896  -0.04906767432733829 0 -0.9987954562051763  0.04906767432714112 0 -0.9987954562051859  0.09801714032917982 0 -0.9951847266722343  0.1467304744549082 0 -0.9891765099648483  0.1950903220155996 0 -0.9807852804033356  0.24298017990263 0 -0.9700312531947027  0.2902846772537184 0 -0.9569403357324345  0.3368898533913423 0 -0.9415440651833348  0.3826834323641164 0 -0.9238795325116899  0.4275550934292418 0 -0.9039892931239354  0.4713967368248421 0 -0.8819212643489727  0.5141027441919865 0 -0.8577286100010124  0.5555702330183399 0 -0.8314696123033888  0.5956993044911314 0 -0.8032075314816105  0.6343932841623059 0 -0.7730104533638363  0.6715589548456633 0 -0.740951125
[...]
<PointData  Scalars="f_8980877-0"> 
<DataArray  type="Float64"  Name="f_8980877-0"  format="ascii">8.3647208757047620e-01  8.7764546580342906e-01  9.6323064947373971e-01  9.4358686173626338e-01  8.8247546389188780e-01  8.6384295826888513e-01  8.5584897766731638e-01  9.0190044242967682e-01  8.9434982057881196e-01  8.3316585567680246e-01  9.2669992368637732e-01  9.0295916065274195e-01  8.8801319933462730e-01  9.1838390817500670e-01  8.8257100280603318e-01  8.7966615519982294e-01  8.7453051413894189e-01  8.2562481740148352e-01  9.5999913724855579e-01  8.6659565664358618e-01  8.9467765670474431e-01  9.7724307794500787e-01  8.9355160053601412e-01  9.0141387620069247e-01  8.6974275444002480e-01  9.8997715467875413e-01  9.0549782882656038e-01  9.4064008108723374e-01  9.0014275399840304e-01  9.1221151867742778e-01  8.7169987320548137e-01  8.4445257769801896e-01  9.5535088014124703e-01  8.7648734785144911e-01  9.0723840260542665e-01  8.4209274996488104e-01  9.0140007185294135e-01  9.4702527278488524e-01  8.7921981255754345e-01  9.4799998482096448e-01  9.5403541268367398e-01  8.7146307074416129e-01  1.0020028980995517e+00  9.4041024057329980e-01  9.0137888928625509e-01  9.6077186972064266e-01  8.7141546774735046e-01  9.2422452692193879e-01  9.6161005736233340e-01  8.4954827290175827e-01  9.1086623107358233e-01  9.4222619688779552e-01  8.8621289366811418e-01  1.0052067656134951e+00  8.5558582923742110e-01  8.9990589648027675e-01  8.8931939341450650e-01  9.0239733542352385e-01  8.6820162666664313e-01  9.8437008946182780e-01  9.4029720761456459e-01  8.8290909923880811e-01  9.3601105424463515e-01  9.2339569196087756e-01  9.4965499769669459e-01  9.7005814994455619e-01  8.5669840191694846e-01  1.0244970034729730e+00  8.9598743165667216e-01  9.1161757225705486e-01  9.2426594380404459e-01  8.6104536878984472e-01  8.9525245939135234e-01  8.7855173490747573e-01  9.0743377211839604e-01  8.8124149029354448e-01  9.5682736645327682e-01  8.8635294192341230e-01  8.8403972186113622e-01  9.1304727209052128e-01  8.8518367334835191e-01  9.0255117920373751e-01  8.9051866550786130e-01  9.8104208297506368e-01  8.7825549438684059e-01  9.0232979135619107e-01  8.7749147759817125e-01  8.0954017607305784e-01  9.3924812715988981e-01  9.0105120658369142e-01  9.2067364219090830e-01  8.9745270806530586e-01  9.4257912129380750e-01  7.6265107277880118e-01  8.9104795693760375e-01  9.3446508246267157e-01  9.5698778338749035e-01  9.7319325208985663e-01  8.9668792304911216e-01  7.8029676819752958e-01  8.9209560878259031e-01  9.2271303276570427e-01  9.5142502789723871e-01  8.8364320704179777e-01  9.2537049000298943e-01  9.2545046734810188e-01  8.2313558083817384e-01  8.8014110149451397e-01  9.4682485748108602e-01  8.4008639983620481e-01  8.7245453736706213e-01  9.7052333991060613e-01  8.8253018761622426e-01  8.7465210358230006e-01  8.7792699304291066e-01  9.4256685399991502e-01  8.9266561537378830e-01  8.2467287103613929e-01  9.1565292471151649e-01  8.9667814452171890e-01  9.4316091246913603e-01  8.7979674953289888e-01  9.2546815584165298e-01  8.3616229635865835e-01  8.7139135093740139e-01  8.3868994233514993e-01  9.1063021635067798e-01  9.4921872921296224e-01  8.7528421480791196e-01  9.0697822208284828e-01  8.0995326985448612e-01  9.3139181396316073e-01  1.0462431364242890e+00  9.6467406211676554e-01  9.1454641332208497e-01  9.0896946964179581e-01  9.6254855259861227e-01  9.7410081407637195e-01  8.2858604004477476e-01  9.2496138603081490e-01  9.5161479349450750e-01  8.6005471971850245e-01  9.6071470432334283e-01  9.2443691086808510e-01  9.5652430698347723e-01  8.1691242529628949e-01  8.9146456740582358e-01  9.3338183124712648e-01  9.1941283455838518e-01  9.2867764782904161e-01  9.3832270778308013e-01  9.1964424841382464e-01  9.3388187286307600e-01  8.4263391717080904e-01  8.6943366793478283e-01  7.8261236067360995e-01  8.8254825085715183e-01  8.1443508920241747e-01  8.8380072654969410e-01  9.1972607974069687e-01  9.5006979187746543e-01  9.0848408168103911e-01  8.6462713153870008e-01  8.3912008422645079e-01  9.4264417642149501e-01  9.2111763189290252e-01  9.1218217030241600e-01  9.0643577586419322e-01  9.1696692311031303e-01  8.4509203180448089e-01  9.8139864847482827e-01  9.1558585985058782e-01  8.1062238703381850e-01  9.5290581116596962e-01  8.2706537656930013e-01  9.2139672270777684e-01  9.6824026462928547e-01  8.9558402719082020e-01  9.4173612260072792e-01  8.6274595537707421e-01  9.0778207359715968e-01  9.1298765526168824e-01  8.7268788139477982e-01  8.2174990655782698e-01  9.5011871843712248e-01  9.6677693749703308e-01  8.6977088811590675e-01  8.9274803545471715e-01  8.5395352003974423e-01  9.8545991901012908e-01  9.5366625865212384e-01  9.5347928319658792e-01  8.3989581381026679e-01  8.6180040287676896e-01  9.1271577913124902e-01  8.7611520016039524e-01  9.0121779787969014e-01  8.9330827085465780e-01  8.4343726815476072e-01  8.5616425403021479e-01  8.9626124455299205e-01  8.6530327532132079e-01  8.4729775459601164e-01  7.9546172383011715e-01  8.8266807151903681e-01  8.2354027292681742e-01  8.9530655044820739e-01  7.9708296403267043e-01  9.7452836440285262e-01  8.0082435068466928e-01  8.5645733111717259e-01  8.5189767500576186e-01  9.6399315298385679e-01  9.5006768947964937e-01  9.3463861825265027e-01  8.9765298872875610e-01  8.7089345020996045e-01  8.6591089363176288e-01  8.7724762347510266e-01  9.3623952367764196e-01  8.8853931195442470e-01  9.1841386080960408e-01  9.3680325615761595e-01  9.7881423176707172e-01  8.7093938384119363e-01  8.6921176598405636e-01  8.4429727270539234e-01  9.2177241626413142e-01  8.2426441151594865e-01  9.2588005404888984e-01  8.9304703608148828e-01  9.1405690836145959e-01  8.4479978329940730e-01  9.7595717035786966e-01  8.8163768116750607e-01  1.0185012077958064e+00  8.5367484025693074e-01  9.0502589965993752e-01  8.9218530655484496e-01  8.9929934927154864e-01  9.1529937794093330e-01  9.8348355160787215e-01  8.4137498733070670e-01  8.4718523409995772e-01  8.4289132310340065e-01  8.5761805981049988e-01  9.6315537312819888e-01  9.0031677602668814e-01  9.0893457295122770e-01  8.7667024444324038e-01  8.5974651279619663e-01  9.3026079320459421e-01  8.7391414001952838e-01  9.1365582059781147e-01  9.3704963549592857e-01  8.5969748953711100e-01  8.0593008690704115e-01  8.8290074467039259e-01  8.8998390345206535e-01  9.0630180259812021e-01  8.5842602689759195e-01  8.0965707205689397e-01  9.4705049410694075e-01  8.9147417156969377e-01  7.9071043388947704e-01  8.4844247324424560e-01  9.5116738922062016e-01  8.2411739311683974e-01  8.4049049928746189e-01  8.3144246549295220e-01  8.9738763868505433e-01  8.4203344760024745e-01  7.9203932894766815e-01  9.8463331645609020e-01  8.4934110221422543e-01  8.1341118536154888e-01  9.4516586852032902e-01  8.4783393784444328e-01  9.1184677140139403e-01  9.4359510566140414e-01  8.4900200853718766e-01  8.7464199030893153e-01  9.3161801732811333e-01  9.0019666082137428e-01  9.1598158053165035e-01  9.6660174915792896e-01  9.2696537451162897e-01  9.9823309325456000e-01  8.6178719189487385e-01  8.4375011726230831e-01  9.9393193706425076e-01  9.3694267868540670e-01  9.3632239360533476e-01  8.5018483903381448e-01  8.9255495978720223e-01  9.6537065244294074e-01  8.5930939557747710e-01  8.2341066107514604e-01  9.2299484096095652e-01  1.0053889845527162e+00  9.4191865362416605e-01  8.3565300134437459e-01  9.8697750543797103e-01  9.4442982045856572e-01  9.0616438135398392e-01  8.0476605136299140e-01  8.2316311786119045e-01  9.2506169087295287e-01  8.1703760629302968e-01  8.9653907847584879e-01  9.5593925956509407e-01  9.4381220094585749e-01  9.6354246183051440e-01  8.7673769024930537e-01  9.5937879780115942e-01  8.4241376996143846e-01  8.5541108148448119e-01  8.4050841491949235e-01  8.3613850594944428e-01  8.5916004331253781e-01  8.4430323262762030e-01  8.7830976192240218e-01  9.8235126511581783e-01  9.9483015121289087e-01  8.6419125597764856e-01  8.1847067221733671e-01  9.5061983281771345e-01  9.6129811358136319e-01  9.4644238882249643e-01  9.5631547140405659e-01  8.9982492670838266e-01  8.8766073118787991e-01  1.0007997243606113e+00  9.9603190729614766e-01  8.9050701366895069e-01  9.4477215560269545e-01  8.6230485365690557e-01  9.4937281909375426e-01  9.1888822514271118e-01  9.1283212379539691e-01  9.4200222012603696e-01  7.9110218346986116e-01  8.4758686470770317e-01  8.5415924220690620e-01  9.4700716110118399e-01  1.0252909451915404e+00  9.7400222626638833e-01  9.2496992239464415e-01  8.8884569603466279e-01  9.2218553210995613e-01  9.6306550580698647e-01  9.5511046352551388e-01  9.5450959145843306e-01  8.5647202520840848e-01  8.0868708889090124e-01  8.4402361501645262e-01  9.2268427880341475e-01  9.1992022065792367e-01  8.6154041355581246e-01  9.9278636880450977e-01  9.0295875738086240e-01  8.6727670227089759e-01  9.0357878528842239e-01  9.5635092216826501e-01  9.0563617489277770e-01  9.2960912124596173e-01  9.2109485980564099e-01  8.9029617961660423e-01  9.3159422141979342e-01  8.6278942942815962e-01  8.7948183420466541e-01  8.1317663838338383e-01  8.6309046583398485e-01  9.1983598833921387e-01  9.3390963359987855e-01  1.0404321378725585e+00  9.6308103953522650e-01  8.4743486042370575e-01  9.1344604444690747e-01  8.6449940470642972e-01  8.9301717015697291e-01  8.6948163850910287e-01  9.6504979221126930e-01  9.2632326758082484e-01  9.1186019401149998e-01  8.3009392969745133e-01  8.5505293266384153e-01  8.8132479517053508e-01  8.6789274493382396e-01  9.0172752007135115e-01  8.7753197978045028e-01  8.2049747172253951e-01  9.0011014469854689e-01  8.6949247942078811e-01  8.5491534562290605e-01  9.0496749769580009e-01  8.9650165656776981e-01  9.4024538513478939e-01  8.9587169515600407e-01  8.5805506414484456e-01  8.5455161921533018e-01  9.4457191312117428e-01  9.5531805668216596e-01  9.4285049264449949e-01  8.8945849846949188e-01  8.2646644460132934e-01  9.6812968314811143e-01  8.3643360206037509e-01  8.9363720939963087e-01  9.1500904251882864e-01  8.2434978042065643e-01  8.8206266561775226e-01  9.6407030667055882e-01  8.6629161415760336e-01  9.1393135326975050e-01  9.8826156193970571e-01  9.0271954692932688e-01  9.2701865942239325e-01  8.0169067275733874e-01  9.1132859014934475e-01  9.6399559987042793e-01  9.9940153542775190e-01  9.3856166869510849e-01  8.2746199397056497e-01  9.6027631063447150e-01  9.4996628645582604e-01  8.4742506209859836e-01  9.9727834900522305e-01  8.8282641701188425e-01  8.3167372699954401e-01  7.8485981761120760e-01  9.7523339315592583e-01  8.7689466410427930e-01  8.4840279253025930e-01  8.4030357419449742e-01  9.1753995626545848e-01  9.0761569295349653e-01  8.6638444601713771e-01  9.8209374781944947e-01  8.9249018224666676e-01  9.2840146890289632e-01  8.2873913282156275e-01  9.6032045286039913e-01  9.7355653480588988e-01  9.5866147683714442e-01  9.1474934470010494e-01  9.1819260970861782e-01  9.1668344983556960e-01  9.5821989140219277e-01  9.3321306697238571e-01  8.8787204930825359e-01  8.6161108642939288e-01  8.2385689980089927e-01  7.7226608430340793e-01  1.0394937332976835e+00  9.2950456283991023e-01  8.5505061061109400e-01  8.9786466145704680e-01  8.6446682623813809e-01  8.5020209250326229e-01  9.2246653105062315e-01  8.7432686660478831e-01  9.1969565622946936e-01  9.5363456939491398e-01  8.7819856620424352e-01  8.3408770084919881e-01  9.5961558544522385e-01  8.5671068915530413e-01  8.9713043842699658e-01  7.9317270964183617e-01  9.1611304687187300e-01  8.3770810671681795e-01  8.5600099677356223e-01  9.4354565855102146e-01  1.0052990725851885e+00  9.2528811258656929e-01  9.4108372447960686e-01  9.4264622899070916e-01  9.2754399184555403e-01  9.1508798146376391e-01  8.7391327996370027e-01  8.8405667046792158e-01  9.7551396303159044e-01  9.3303005534920469e-01  8.5339130018180498e-01  8.5480227306164924e-01  9.2379876144412976e-01  9.5813721100566940e-01  9.0932359000235852e-01  8.3054033826026263e-01  8.9402605299243554e-01  8.2733758345283692e-01  8.8982246770957441e-01  8.5215967097011303e-01  8.8004208787097993e-01  8.9489212825414988e-01  9.0667210596894410e-01  9.1750982873206466e-01  9.1753964805278199e-01  9.2174325793885026e-01  9.0000357259847841e-01  9.3486310629863334e-01  9.8419200498469028e-01  8.6157334630075932e-01  8.8711500382793651e-01  9.2202494959397829e-01  9.3328307804965338e-01  9.7984771626741274e-01  9.3926193455998164e-01  9.1452066709576052e-01  9.7097089613103815e-01  9.8815119913059180e-01  8.3794196156267586e-01  8.6741877941643253e-01  9.4450516881587609e-01  9.5546551225996934e-01  8.8168369830508952e-01  9.5645674213499010e-01  9.2234063052564907e-01  1.0307835287163918e+00  9.8790739780146009e-01  1.0046328546659282e+00  8.8296484419961530e-01  9.6017078842304215e-01  8.9400999371690282e-01  9.0654036085290168e-01  9.5676465207828298e-01  8.5017688223159382e-01  8.6327729035281586e-01  8.7986781209237674e-01  9.8217728888705436e-01  9.0384075655097718e-01  8.9624718085904509e-01  9.0691604941820059e-01  8.2730267240266719e-01  8.3660624780366977e-01  9.3022012612702532e-01  9.1320389154042925e-01  8.9244423588124888e-01  9.3105825946473864e-01  8.8795451460666375e-01  1.1209644410563895e+00  9.3343355322740962e-01  8.5226840239457569e-01  8.9251141465088668e-01  8.6754502557972679e-01  9.2283254684598592e-01  9.1436508265318051e-01  9.5222573237257480e-01  9.4567106783460142e-01  9.3558635577631011e-01  8.4086144566864629e-01  9.1921143520494109e-01  8.6755427107001160e-01  8.3679315186414915e-01  9.3381175043613640e-01  8.2913679536070628e-01  7.8240129144285808e-01  9.1634442487161605e-01  8.8588609394609008e-01  9.0875999393018703e-01  9.4828914359286165e-01  8.7184458916981744e-01  8.5354024202396883e-01  9.8750406957253367e-01  8.7216491488256453e-01  8.5971483662330295e-01  8.8107784590276084e-01  8.6999646602873670e-01  9.5544559571418752e-01  9.9524672735753394e-01  7.9786765772281476e-01  8.6263856337046285e-01  8.9047127334722087e-01  8.6513812834873383e-01  9.0543412260514478e-01  9.4272178960064501e-01  8.3946750687254790e-01  8.5936132994939229e-01  9.2996302426363497e-01  9.0410874899360660e-01  1.0211962438987292e+00  8.8795415500557962e-01  1.0114670940256636e+00  8.3702651114449866e-01  9.9211132593934981e-01  1.0125616843415084e+00  9.2487505332655651e-01  7.8358306674161171e-01  8.9962284404060233e-01  9.3026431693285783e-01  8.3965880662441095e-01  8.3967724978156411e-01  8.7328342902259515e-01  1.0060926402926935e+00  9.3812593981148618e-01  8.5605899120792961e-01  9.3230901771524455e-01  9.1009137100101234e-01  8.2822486099877934e-01  8.0177064989833269e-01  8.5671605048589083e-01  9.1328356992756421e-01  9.2039084586992870e-01  9.2200120291118948e-01  8.6486778964702049e-01  9.0617328052137069e-01  9.4883512236586998e-01  8.9907253360116268e-01  9.2102086573683184e-01  9.1224259129791019e-01  8.6852539872632817e-01  9.7576846720326182e-01  1.0178251069724320e+00  9.3762294183774808e-01  8.5583622136024695e-01  9.2113672225316090e-01  8.5416204975536059e-01  8.6741017095228545e-01  9.5385016710562975e-01  8.5793680487701396e-01  9.5586222300698931e-01  8.2092397670708750e-01  9.2679227817747700e-01  8.9110526230834508e-01  8.9087202786547903e-01  9.6582778012105619e-01  8.6186762328685207e-01  1.0009415803964936e+00  9.4360804215367289e-01  9.1659595192173005e-01  9.0500004000227585e-01  8.8170282589765914e-01  9.1445645307573808e-01  8.5224695731183830e-01  8.5066143178950071e-01  9.1478272344311540e-01  9.0231011285326834e-01  8.1511430492718062e-01  9.8982455477710551e-01  9.2824198669258640e-01  9.3239646426276934e-01  8.7090593550865281e-01  7.9243628456093218e-01  8.6921337652667940e-01  8.9636837222900545e-01  8.8866202736077282e-01  8.8810098946326244e-01  9.2628294049960880e-01  8.5395162879563713e-01  8.5979422215407664e-01  7.9878032021703504e-01  9.6989706039516888e-01  9.1106084311990254e-01  8.9286048005282670e-01  8.8925637870122642e-01  8.0843016791218625e-01  9.3900160602864202e-01  1.0154565696787694e+00  8.6795734885522302e-01  9.1556401214561289e-01  9.5991157710452524e-01  9.7379775045873085e-01  9.2548853882189586e-01  8.8094206163565225e-01  9.0790206202523471e-01  9.4517619966020905e-01  8.6761003803773307e-01  8.8243528203920008e-01  8.3516583891389906e-01  8.9237317088480972e-01  8.6038221717880026e-01  9.2214245199241873e-01  9.3990219924348550e-01  9.3317784618444199e-01  8.7797670328912558e-01  8.0492057464827238e-01  9.6331122131765057e-01  1.0396027996666670e+00  8.7331945545351797e-01  9.0981209269819241e-01  8.3895465644035638e-01  8.7607035527468302e-01  9.0126902341990112e-01  8.7413702040405838e-01  8.8251825725729760e-01  8.5163668987072394e-01  9.3683044195644138e-01  9.5272078579938801e-01  8.8884288753773666e-01  8.7896441427458105e-01  8.5783558988502784e-01  8.9497548779388447e-01  9.5031430705174458e-01  9.4948823100779212e-01  9.1093541777032006e-01  9.1965770187246854e-01  8.6987306153494470e-01  9.1906655437902296e-01  9.2340816421008642e-01  9.1344547183447378e-01  1.0135017690159063e+00  8.8256389245167521e-01  8.4115155248961837e-01  9.0962073275807809e-01  9.0528254270288799e-01  9.4991921282347158e-01  9.5720791906259484e-01  8.4664775767224421e-01  8.4068331935750074e-01  9.4070156395944560e-01  9.9711415610247900e-01  8.3901952768823240e-01  9.0172828351766743e-01  8.8053021044620372e-01  8.9127862562544935e-01  9.0202665183270658e-01  8.8292877834436301e-01  9.5039037976809382e-01  9.4336381860911978e-01  9.3278296159481411e-01  9.0765212883156476e-01  9.3654599189487631e-01  9.1740328131845705e-01  9.3996157315991968e-01  9.6234976469281608e-01  9.4648331390901674e-01  8.4806194700133475e-01  9.8766098795943658e-01  9.2952734799886327e-01  9.3843616101229055e-01  9.1415747797886759e-01  9.7316082021704886e-01  9.2561092262072686e-01  9.6395440708855207e-01  9.1712514881363050e-01  9.8248943760507657e-01  8.1863930849619626e-01  8.9330816281832870e-01  9.3348821271843452e-01  9.0637023675345485e-01  9.1942400748953401e-01  9.2441833443068633e-01  9.6232103596698026e-01  8.9641432410052324e-01  8.4337541735985888e-01  7.9991711740073956e-01  8.6781053340606895e-01  9.3412662068108432e-01  9.6356781865956731e-01  8.8530630965330515e-01  8.8932658164122935e-01  9.3953818411903978e-01  9.3852285827602488e-01  9.0152470916891403e-01  9.4399244123929282e-01  9.1900821904684704e-01  9.4582680874778780e-01  8.7224848517037867e-01  8.7575259875406963e-01  9.5348348406391714e-01  9.1217986590867151e-01  8.5999100204900125e-01  9.1856305740847821e-01  8.5624096908260083e-01  9.0514401198654204e-01  8.0173144050743761e-01  9.6253219141310831e-01  9.7974895319536093e-01  8.6871736016138812e-01  8.7698641690229862e-01  9.7374559916391246e-01  9.5579861012620659e-01  9.2462836820666994e-01  9.4418855171867833e-01  9.8652173539487653e-01  8.4953995847715613e-01  8.3848049715556383e-01  9.1782334924763032e-01  9.9216955460297995e-01  9.2419529679624524e-01  8.6243570176796081e-01  8.0219231260768231e-01  9.0522213913346672e-01  8.4546731262730379e-01  9.1081676045405380e-01  8.8274442294319966e-01  8.3533881335595406e-01  8.8750925503604206e-01  9.2323728032737629e-01  9.1146797833787396e-01  9.7634476345991605e-01  9.3527793007782523e-01  8.4566982552807968e-01  9.9274202661314215e-01  8.8071754667112345e-01  9.1909350869001616e-01  9.2563906689562303e-01  8.9731668253963526e-01  8.7884616189231435e-01  8.4563075444048286e-01  8.1685978450258201e-01  9.5202740322210022e-01  9.1545583379327999e-01  8.6688194471940583e-01  9.0949429096922696e-01  9.3162245749898154e-01  9.4154198560996871e-01  8.4425742156291206e-01  8.3829699975792271e-01  9.1267816861106443e-01  8.9049105383878091e-01  9.5188394617460392e-01  9.1939577812210838e-01  9.0178484077872334e-01  8.4306252553098882e-01  9.3760856785966384e-01  9.6281874982507043e-01  9.4748021913995739e-01  8.6925348726793839e-01  8.8999909533595978e-01  9.5053147395606097e-01  9.1093332781102843e-01  9.3188551564443134e-01  9.3600982599290217e-01  8.8123140472006634e-01  8.6249853308262936e-01  8.4356951531937208e-01  8.7934278155244994e-01  9.283